15
Energy = -444.3675760010
O     0.3227377    0.0000000    0.0000000 
O    -0.3227377    0.0000000    0.0000000 
H     2.5299750    1.0940935    2.4745860 
O    -3.5744151    0.9592991    0.1609007 
H    -3.9791207    0.9592991    0.4760304 
H    -3.1697095    0.9592991    0.4760304 
O    -2.6413012    0.1864752    2.5941591 
H    -3.0460068    0.1864752    2.9092889 
H    -2.2365956    0.1864752    2.9092889 
O    -2.4662900   -2.7545963   -0.2220737 
H    -2.8709956   -2.7545963    0.0930561 
H    -2.0615843   -2.7545963    0.0930561 
O    -2.4698906   -0.4432094    2.7285756 
H    -2.8745962   -0.4432094    3.0437053 
H    -2.0651850   -0.4432094    3.0437053 
