15
Energy = -448.4220930879
O     0.3227377    0.0000000    0.0000000 
O    -0.3227377    0.0000000    0.0000000 
H    -2.5245735   -0.1397981   -4.6486365 
O    -3.1226297    2.3711208   -3.5500793 
H    -3.5273354    2.3711208   -3.2349496 
H    -2.7179241    2.3711208   -3.2349496 
O    -3.0830488    1.0208366   -4.1742181 
H    -3.4877545    1.0208366   -3.8590884 
H    -2.6783432    1.0208366   -3.8590884 
O     0.9056737    5.2133703    0.0617412 
H     0.5009681    5.2133703    0.3768709 
H     1.3103793    5.2133703    0.3768709 
O    -3.6463411    3.7310910    0.8903268 
H    -4.0510467    3.7310910    1.2054566 
H    -3.2416355    3.7310910    1.2054566 
