15
Energy = -448.7081411341
O     0.3227377    0.0000000    0.0000000 
O    -0.3227377    0.0000000    0.0000000 
H    -1.0790215    2.1644142   -2.8057822 
O     0.2574965   -0.5371021   -3.6522725 
H    -0.1472091   -0.5371021   -3.3371428 
H     0.6622021   -0.5371021   -3.3371428 
O    -0.4422021   -2.6150742    2.5897331 
H    -0.8469078   -2.6150742    2.9048629 
H    -0.0374965   -2.6150742    2.9048629 
O    -0.5428847    1.9285321    3.1194393 
H    -0.9475903    1.9285321    3.4345691 
H    -0.1381791    1.9285321    3.4345691 
O     0.7321838    3.4972256   -0.9733280 
H     0.3274782    3.4972256   -0.6581983 
H     1.1368894    3.4972256   -0.6581983 
