15
Energy = -448.6936693595
O     0.3227377    0.0000000    0.0000000 
O    -0.3227377    0.0000000    0.0000000 
H    -4.5314699    0.9827817    2.5500503 
O    -3.8536190   -3.5380486    0.8004257 
H    -4.2583246   -3.5380486    1.1155554 
H    -3.4489134   -3.5380486    1.1155554 
O    -3.1232228   -2.4561832   -3.4913006 
H    -3.5279284   -2.4561832   -3.1761708 
H    -2.7185172   -2.4561832   -3.1761708 
O    -1.2468082    5.0543902   -0.9456803 
H    -1.6515138    5.0543902   -0.6305505 
H    -0.8421026    5.0543902   -0.6305505 
O    -4.7308284   -0.9629186    2.1705331 
H    -5.1355340   -0.9629186    2.4856629 
H    -4.3261228   -0.9629186    2.4856629 
