15
Energy = -448.6985704564
O     0.3227377    0.0000000    0.0000000 
O    -0.3227377    0.0000000    0.0000000 
H    -3.3605739    3.8753365   -1.3004409 
O     4.4149073   -2.7278056   -1.0308883 
H     4.0102017   -2.7278056   -0.7157585 
H     4.8196129   -2.7278056   -0.7157585 
O    -1.7749278    3.8842459   -3.1211517 
H    -2.1796334    3.8842459   -2.8060219 
H    -1.3702222    3.8842459   -2.8060219 
O     2.8164310   -3.9125327    2.1861121 
H     2.4117253   -3.9125327    2.5012418 
H     3.2211366   -3.9125327    2.5012418 
O    -0.3949273   -1.8546160    4.9441357 
H    -0.7996329   -1.8546160    5.2592655 
H     0.0097783   -1.8546160    5.2592655 
