15
Energy = -448.6905779653
O     0.3227377    0.0000000    0.0000000 
O    -0.3227377    0.0000000    0.0000000 
H    -3.3991285    1.1237947   -3.8969022 
O     3.1476716   -1.5881113    3.9500161 
H     2.7429660   -1.5881113    4.2651459 
H     3.5523772   -1.5881113    4.2651459 
O     4.0623117    0.7525671    3.3104398 
H     3.6576061    0.7525671    3.6255696 
H     4.4670174    0.7525671    3.6255696 
O    -1.8421586   -3.5980252   -3.4114226 
H    -2.2468642   -3.5980252   -3.0962928 
H    -1.4374530   -3.5980252   -3.0962928 
O    -4.5272625    2.4395704    1.2508519 
H    -4.9319681    2.4395704    1.5659817 
H    -4.1225568    2.4395704    1.5659817 
