15
Energy = -448.6846754022
O     0.3227377    0.0000000    0.0000000 
O    -0.3227377    0.0000000    0.0000000 
H     2.7351783   -0.2590488    2.4845690 
O     0.1260796    1.8826204   -3.1839046 
H    -0.2786260    1.8826204   -2.8687749 
H     0.5307853    1.8826204   -2.8687749 
O     1.2696047   -2.4745464   -2.4428891 
H     0.8648991   -2.4745464   -2.1277594 
H     1.6743103   -2.4745464   -2.1277594 
O    -2.5739023   -1.7650697   -1.9914663 
H    -2.9786079   -1.7650697   -1.6763365 
H    -2.1691966   -1.7650697   -1.6763365 
O    -3.5112159   -0.2190371    1.1634089 
H    -3.9159215   -0.2190371    1.4785387 
H    -3.1065103   -0.2190371    1.4785387 
