15
Energy = -448.6983772946
O     0.3227377    0.0000000    0.0000000 
O    -0.3227377    0.0000000    0.0000000 
H     3.3616829    2.1923264   -3.4490041 
O     2.8189840    3.6135125    2.6492687 
H     2.4142783    3.6135125    2.9643985 
H     3.2236896    3.6135125    2.9643985 
O     5.2352027   -0.3643165   -0.6765020 
H     4.8304971   -0.3643165   -0.3613723 
H     5.6399083   -0.3643165   -0.3613723 
O    -4.7320965   -0.5316564    2.3118892 
H    -5.1368021   -0.5316564    2.6270190 
H    -4.3273909   -0.5316564    2.6270190 
O    -3.7707205    3.0040082    2.1856072 
H    -4.1754261    3.0040082    2.5007370 
H    -3.3660148    3.0040082    2.5007370 
