15
Energy = -448.7077933157
O     0.3227377    0.0000000    0.0000000 
O    -0.3227377    0.0000000    0.0000000 
H     3.8326501    3.0603378    1.9869480 
O    -1.9773825    1.6953305    4.6101349 
H    -2.3820881    1.6953305    4.9252647 
H    -1.5726769    1.6953305    4.9252647 
O     2.9835885   -3.7077318    2.3175840 
H     2.5788828   -3.7077318    2.6327138 
H     3.3882941   -3.7077318    2.6327138 
O     1.9289384    4.8784832   -0.6908103 
H     1.5242327    4.8784832   -0.3756806 
H     2.3336440    4.8784832   -0.3756806 
O     0.5747101    0.1240817    5.2627708 
H     0.1700045    0.1240817    5.5779006 
H     0.9794157    0.1240817    5.5779006 
