15
Energy = -448.6939904032
O     0.3227377    0.0000000    0.0000000 
O    -0.3227377    0.0000000    0.0000000 
H     3.8161864    3.6473390   -0.3694258 
O     5.1848196    0.6441552   -0.8362031 
H     4.7801140    0.6441552   -0.5210734 
H     5.5895253    0.6441552   -0.5210734 
O    -3.9145651   -3.4961312    0.6791039 
H    -4.3192707   -3.4961312    0.9942336 
H    -3.5098594   -3.4961312    0.9942336 
O     2.7909038    0.2742948    4.4913534 
H     2.3861982    0.2742948    4.8064831 
H     3.1956094    0.2742948    4.8064831 
O     4.6923021   -2.3483211   -0.6821835 
H     4.2875965   -2.3483211   -0.3670538 
H     5.0970078   -2.3483211   -0.3670538 
