15
Energy = -448.6439626645
O     0.3227377    0.0000000    0.0000000 
O    -0.3227377    0.0000000    0.0000000 
H     3.5768944    0.6458790   -3.8459723 
O    -4.2531959    3.0461427    0.8001157 
H    -4.6579016    3.0461427    1.1152454 
H    -3.8484903    3.0461427    1.1152454 
O     0.5139882    3.2011884   -4.1784652 
H     0.1092826    3.2011884   -3.8633354 
H     0.9186939    3.2011884   -3.8633354 
O     0.1616373    4.5070167   -2.7645401 
H    -0.2430684    4.5070167   -2.4494103 
H     0.5663429    4.5070167   -2.4494103 
O     2.8371170    4.0515700    1.8848236 
H     2.4324114    4.0515700    2.1999534 
H     3.2418226    4.0515700    2.1999534 
