15
Energy = -448.2867478660
O     0.3227377    0.0000000    0.0000000 
O    -0.3227377    0.0000000    0.0000000 
H     0.5049955    3.6290173   -0.5446125 
O     0.9054364    3.5170951    0.7328848 
H     0.5007307    3.5170951    1.0480145 
H     1.3101420    3.5170951    1.0480145 
O    -2.9769560   -1.9629632   -0.9991803 
H    -3.3816616   -1.9629632   -0.6840506 
H    -2.5722503   -1.9629632   -0.6840506 
O    -2.3530471   -1.7273143   -2.2767934 
H    -2.7577528   -1.7273143   -1.9616637 
H    -1.9483415   -1.7273143   -1.9616637 
O    -1.4935592   -1.5652929    3.0105117 
H    -1.8982648   -1.5652929    3.3256414 
H    -1.0888536   -1.5652929    3.3256414 
