15
Energy = -448.3143726406
O     0.3227377    0.0000000    0.0000000 
O    -0.3227377    0.0000000    0.0000000 
H    -2.3537858   -2.9577154   -3.7033023 
O     0.9099161   -2.7675087   -4.4139028 
H     0.5052105   -2.7675087   -4.0987731 
H     1.3146217   -2.7675087   -4.0987731 
O    -2.9499064   -2.8906485   -3.3045643 
H    -3.3546120   -2.8906485   -2.9894346 
H    -2.5452008   -2.8906485   -2.9894346 
O     2.0192785   -3.5706290   -3.3392819 
H     1.6145729   -3.5706290   -3.0241521 
H     2.4239841   -3.5706290   -3.0241521 
O     1.4193366   -5.0835256    0.3859783 
H     1.0146310   -5.0835256    0.7011081 
H     1.8240422   -5.0835256    0.7011081 
