15
Energy = -448.5505278897
O     0.3227377    0.0000000    0.0000000 
O    -0.3227377    0.0000000    0.0000000 
H     2.3176755   -4.7289800    0.5176528 
O     1.2613939    4.0304381   -3.1848544 
H     0.8566883    4.0304381   -2.8697247 
H     1.6660995    4.0304381   -2.8697247 
O     3.9209071   -2.3666590    2.6548489 
H     3.5162015   -2.3666590    2.9699786 
H     4.3256127   -2.3666590    2.9699786 
O     2.9514699   -3.7134608    2.3493711 
H     2.5467643   -3.7134608    2.6645009 
H     3.3561755   -3.7134608    2.6645009 
O     2.4159953    0.7903978    4.6450007 
H     2.0112897    0.7903978    4.9601305 
H     2.8207009    0.7903978    4.9601305 
