15
Energy = -448.6980332906
O     0.3227377    0.0000000    0.0000000 
O    -0.3227377    0.0000000    0.0000000 
H     1.7997502   -0.0684145   -4.9758471 
O     2.8529445    3.2180297    3.0872412 
H     2.4482388    3.2180297    3.4023710 
H     3.2576501    3.2180297    3.4023710 
O    -0.1359003    4.9745609   -1.7957107 
H    -0.5406059    4.9745609   -1.4805809 
H     0.2688053    4.9745609   -1.4805809 
O     1.2356218   -0.2639051    5.1424831 
H     0.8309162   -0.2639051    5.4576128 
H     1.6403275   -0.2639051    5.4576128 
O    -2.9827208   -2.6416036   -3.4787839 
H    -3.3874264   -2.6416036   -3.1636542 
H    -2.5780152   -2.6416036   -3.1636542 
