15
Energy = -448.6819353731
O     0.3227377    0.0000000    0.0000000 
O    -0.3227377    0.0000000    0.0000000 
H    -0.2633959   -3.8801040    3.5886281 
O    -2.3690275   -3.8769926   -2.7090704 
H    -2.7737331   -3.8769926   -2.3939407 
H    -1.9643219   -3.8769926   -2.3939407 
O     3.1824338   -1.0082448   -4.1021330 
H     2.7777282   -1.0082448   -3.7870032 
H     3.5871394   -1.0082448   -3.7870032 
O    -2.3145592    3.2031658   -3.5155225 
H    -2.7192649    3.2031658   -3.2003927 
H    -1.9098536    3.2031658   -3.2003927 
O    -4.4961587   -2.1054645    1.8352699 
H    -4.9008643   -2.1054645    2.1503997 
H    -4.0914531   -2.1054645    2.1503997 
