15
Energy = -448.6779318964
O     0.3227377    0.0000000    0.0000000 
O    -0.3227377    0.0000000    0.0000000 
H    -2.5643181    3.3933504    3.1483777 
O    -0.5153230    0.9303785   -5.1800251 
H    -0.9200287    0.9303785   -4.8648953 
H    -0.1106174    0.9303785   -4.8648953 
O    -2.5444067    4.3740699    1.5517772 
H    -2.9491123    4.3740699    1.8669069 
H    -2.1397011    4.3740699    1.8669069 
O     2.0764541   -2.5535704   -4.1399600 
H     1.6717485   -2.5535704   -3.8248303 
H     2.4811597   -2.5535704   -3.8248303 
O     0.3711921    4.8522789   -2.0748029 
H    -0.0335135    4.8522789   -1.7596732 
H     0.7758977    4.8522789   -1.7596732 
