15
Energy = -448.5201431672
O     0.3227377    0.0000000    0.0000000 
O    -0.3227377    0.0000000    0.0000000 
H    -2.4591262   -4.5922965   -0.9307777 
O    -3.2512704    2.2315129    3.5325641 
H    -3.6559760    2.2315129    3.8476939 
H    -2.8465648    2.2315129    3.8476939 
O    -4.9609346    1.7825166   -0.4594830 
H    -5.3656402    1.7825166   -0.1443533 
H    -4.5562290    1.7825166   -0.1443533 
O     1.5944051    3.6858929   -3.4422335 
H     1.1896995    3.6858929   -3.1271037 
H     1.9991107    3.6858929   -3.1271037 
O    -0.0522916    3.6317530   -3.8446731 
H    -0.4569973    3.6317530   -3.5295433 
H     0.3524140    3.6317530   -3.5295433 
