15
Energy = -448.6685874457
O     0.3227377    0.0000000    0.0000000 
O    -0.3227377    0.0000000    0.0000000 
H     0.7653299   -2.7127704   -2.4034427 
O    -2.2261824    0.7903165   -2.8494621 
H    -2.6308880    0.7903165   -2.5343323 
H    -1.8214767    0.7903165   -2.5343323 
O    -0.8792100   -2.6791583   -2.3984201 
H    -1.2839156   -2.6791583   -2.0832903 
H    -0.4745044   -2.6791583   -2.0832903 
O    -2.2079013   -2.2483287    1.9509624 
H    -2.6126069   -2.2483287    2.2660921 
H    -1.8031957   -2.2483287    2.2660921 
O    -1.9830563    3.0432403    0.7301020 
H    -2.3877619    3.0432403    1.0452318 
H    -1.5783506    3.0432403    1.0452318 
