15
Energy = -448.6858466915
O     0.3227377    0.0000000    0.0000000 
O    -0.3227377    0.0000000    0.0000000 
H    -4.7178135    1.7057939    1.6838464 
O     3.9103276    3.5081471   -0.6326930 
H     3.5056220    3.5081471   -0.3175632 
H     4.3150332    3.5081471   -0.3175632 
O     2.1571020    4.2130434   -2.3626700 
H     1.7523964    4.2130434   -2.0475402 
H     2.5618076    4.2130434   -2.0475402 
O    -2.1089616   -4.6585149   -1.3576158 
H    -2.5136673   -4.6585149   -1.0424860 
H    -1.7042560   -4.6585149   -1.0424860 
O     2.3528354   -4.7087715   -0.5388887 
H     1.9481298   -4.7087715   -0.2237589 
H     2.7575411   -4.7087715   -0.2237589 
