15
Energy = -448.6874673684
O     0.3227377    0.0000000    0.0000000 
O    -0.3227377    0.0000000    0.0000000 
H     2.8378060   -0.5340407   -4.4344666 
O     3.5807762    2.8567024    2.6533171 
H     3.1760706    2.8567024    2.9684468 
H     3.9854819    2.8567024    2.9684468 
O     2.6714199    1.6200373    4.2748101 
H     2.2667143    1.6200373    4.5899399 
H     3.0761255    1.6200373    4.5899399 
O     1.8140499   -1.3959185    4.7748724 
H     1.4093443   -1.3959185    5.0900021 
H     2.2187555   -1.3959185    5.0900021 
O     3.2994249   -2.9808657   -2.8652198 
H     2.8947193   -2.9808657   -2.5500901 
H     3.7041306   -2.9808657   -2.5500901 
