15
Energy = -448.6808751886
O     0.3227377    0.0000000    0.0000000 
O    -0.3227377    0.0000000    0.0000000 
H     1.7144477   -3.5050770    3.5746245 
O     4.3362271    1.0001384   -2.8597462 
H     3.9315215    1.0001384   -2.5446165 
H     4.7409328    1.0001384   -2.5446165 
O     2.5324390    3.2168290    3.3566140 
H     2.1277334    3.2168290    3.6717437 
H     2.9371446    3.2168290    3.6717437 
O    -1.0846548    2.7652790   -4.3756866 
H    -1.4893604    2.7652790   -4.0605569 
H    -0.6799492    2.7652790   -4.0605569 
O    -3.5454498    1.4098283   -3.6629788 
H    -3.9501554    1.4098283   -3.3478490 
H    -3.1407442    1.4098283   -3.3478490 
